Program Version,EnergyPlus, Version 23.1.0-87ed9199d4, YMD=2023.08.21 13:07
1,5,Environment Title[],Latitude[deg],Longitude[deg],Time Zone[],Elevation[m]
2,8,Day of Simulation[],Month[],Day of Month[],DST Indicator[1=yes 0=no],Hour[],StartMinute[],EndMinute[],DayType
3,5,Cumulative Day of Simulation[],Month[],Day of Month[],DST Indicator[1=yes 0=no],DayType  ! When Daily Report Variables Requested
4,2,Cumulative Days of Simulation[],Month[]  ! When Monthly Report Variables Requested
5,1,Cumulative Days of Simulation[] ! When Run Period Report Variables Requested
6,1,Calendar Year of Simulation[] ! When Annual Report Variables Requested
7,1,Environment,Site Outdoor Air Drybulb Temperature [C] !Hourly
8,1,Environment,Site Outdoor Air Humidity Ratio [kgWater/kgDryAir] !Hourly
744,1,DX COOLING COIL,Coil System Part Load Ratio [] !Hourly
796,1,HEAT PUMP DX HEATING COIL 1,Heating Coil Electricity Energy [J] !Hourly
821,1,HEAT PUMP DX HEATING COIL 1,Heating Coil Heating Energy [J] !Hourly
834,1,HEAT PUMP DX HEATING COIL 1,Heating Coil Heating Rate [W] !Hourly
835,1,HEAT PUMP DX HEATING COIL 1,Heating Coil Electricity Rate [W] !Hourly
836,1,HEAT PUMP DX HEATING COIL 1,Heating Coil Runtime Fraction [] !Hourly
837,1,HEAT PUMP DX HEATING COIL 1,Heating Coil Defrost Electricity Rate [W] !Hourly
838,1,HEAT PUMP DX HEATING COIL 1,Heating Coil Defrost Electricity Energy [J] !Hourly
839,1,HEAT PUMP DX HEATING COIL 1,Heating Coil Crankcase Heater Electricity Rate [W] !Hourly
840,1,HEAT PUMP DX HEATING COIL 1,Heating Coil Crankcase Heater Electricity Energy [J] !Hourly
841,1,HEATPUMP DX COIL 1,Coil System Part Load Ratio [] !Hourly
843,1,HEAT PUMP DX SUPP HEATING COIL 1,Heating Coil Heating Rate [W] !Hourly
894,1,HEAT PUMP DX SUPP HEATING COIL 1,Heating Coil Electricity Rate [W] !Hourly
895,1,HEAT PUMP DX SUPP HEATING COIL 1,Heating Coil Runtime Fraction [] !Hourly
897,1,HPACHEATCAPFT,Performance Curve Input Variable 1 Value [] !Hourly
898,1,HPACHEATCAPFT,Performance Curve Input Variable 2 Value [] !Hourly
899,1,HPACHEATCAPFT,Performance Curve Output Value [] !Hourly
900,1,HPACHEATEIRFT,Performance Curve Input Variable 1 Value [] !Hourly
901,1,HPACHEATEIRFT,Performance Curve Input Variable 2 Value [] !Hourly
902,1,HPACHEATEIRFT,Performance Curve Output Value [] !Hourly
903,1,HPACCOOLCAPFT,Performance Curve Output Value [] !Hourly
904,1,HPACCOOLEIRFT,Performance Curve Output Value [] !Hourly
905,1,HPACHEATCAPFFF,Performance Curve Output Value [] !Hourly
906,1,HPACCOOLCAPFFF,Performance Curve Output Value [] !Hourly
907,1,HPACCOOLEIRFFF,Performance Curve Output Value [] !Hourly
908,1,HPACCOOLPLFFPLR,Performance Curve Output Value [] !Hourly
909,1,HPACHEATEIRFFF,Performance Curve Output Value [] !Hourly
910,1,ZONE 2 INLET NODE,System Node Temperature [C] !Hourly
911,1,HEATING COIL AIR INLET NODE,System Node Temperature [C] !Hourly
912,1,HEATING COIL AIR INLET NODE,System Node Mass Flow Rate [kg/s] !Hourly
913,1,HEATING COIL AIR INLET NODE,System Node Humidity Ratio [kgWater/kgDryAir] !Hourly
914,1,SUPPHEATING COIL AIR INLET NODE,System Node Temperature [C] !Hourly
915,1,SUPPHEATING COIL AIR INLET NODE,System Node Mass Flow Rate [kg/s] !Hourly
916,1,SUPPHEATING COIL AIR INLET NODE,System Node Humidity Ratio [kgWater/kgDryAir] !Hourly
917,1,SUPPHEATING COIL AIR INLET NODE,System Node Standard Density Volume Flow Rate [m3/s] !Hourly
918,1,SUPPHEATING COIL AIR INLET NODE,System Node Current Density Volume Flow Rate [m3/s] !Hourly
919,1,AIR LOOP OUTLET NODE,System Node Temperature [C] !Hourly
End of Data Dictionary
1,JAN,  41.98, -87.92,  -6.00, 201.00
2,1, 1, 1, 0, 1, 0.00,60.00,Thursday
7,-7.825
8,0.0014786732569680788
744,0.0
796,0.0
821,0.0
834,0.0
835,0.0
836,0.0
837,593.2069544441746
838,0.0
839,0.0
840,0.0
841,0.0
843,0.0
894,0.0
895,0.0
897,15.342843066485301
898,-1.0999999999999999
899,0.9338221349628001
900,15.342843066485301
901,-1.0999999999999999
902,1.0267858189522803
903,1.0607570934499202
904,0.7824901371664001
905,0.9199999999999999
906,1.0
907,0.9999999999999999
908,1.0
909,1.1784000000000001
910,6.146310208826413
911,6.146310208826413
912,0.0
913,0.002416262894634517
914,6.146310208826413
915,0.0
916,0.002416262894634517
917,0.0
918,0.0
919,6.146310208826413
2,1, 1, 1, 0, 2, 0.00,60.00,Thursday
7,-11.908333333333331
8,0.0010010221354295199
744,0.0
796,0.0
821,0.0
834,0.0
835,0.0
836,0.0
837,593.2069544441746
838,0.0
839,0.0
840,0.0
841,0.0
843,0.0
894,0.0
895,0.0
897,15.342843066485301
898,-1.0999999999999999
899,0.9338221349628001
900,15.342843066485301
901,-1.0999999999999999
902,1.0267858189522803
903,1.0607570934499202
904,0.7824901371664001
905,0.9199999999999999
906,1.0
907,0.9999999999999999
908,1.0
909,1.1784000000000001
910,4.868803731675968
911,4.868803731675968
912,0.0
913,0.0019137545760707037
914,4.868803731675968
915,0.0
916,0.0019137545760707037
917,0.0
918,0.0
919,4.868803731675968
2,1, 1, 1, 0, 3, 0.00,60.00,Thursday
7,-11.35
8,0.001052853459055591
744,0.0
796,0.0
821,0.0
834,0.0
835,0.0
836,0.0
837,593.2069544441746
838,0.0
839,0.0
840,0.0
841,0.0
843,0.0
894,0.0
895,0.0
897,15.342843066485301
898,-1.0999999999999999
899,0.9338221349628001
900,15.342843066485301
901,-1.0999999999999999
902,1.0267858189522803
903,1.0607570934499202
904,0.7824901371664001
905,0.9199999999999999
906,1.0
907,0.9999999999999999
908,1.0
909,1.1784000000000001
910,4.298467218005823
911,4.298467218005823
912,0.0
913,0.0015442320038322797
914,4.298467218005823
915,0.0
916,0.0015442320038322797
917,0.0
918,0.0
919,4.298467218005823
2,1, 1, 1, 0, 4, 0.00,60.00,Thursday
7,-11.1
8,0.0010770798165451528
744,0.0
796,0.0
821,0.0
834,0.0
835,0.0
836,0.0
837,593.2069544441746
838,0.0
839,0.0
840,0.0
841,0.0
843,0.0
894,0.0
895,0.0
897,15.342843066485301
898,-1.0999999999999999
899,0.9338221349628001
900,15.342843066485301
901,-1.0999999999999999
902,1.0267858189522803
903,1.0607570934499202
904,0.7824901371664001
905,0.9199999999999999
906,1.0
907,0.9999999999999999
908,1.0
909,1.1784000000000001
910,3.727243958991893
911,3.727243958991893
912,0.0
913,0.0013477993198701382
914,3.727243958991893
915,0.0
916,0.0013477993198701382
917,0.0
918,0.0
919,3.727243958991893
2,1, 1, 1, 0, 5, 0.00,60.00,Thursday
7,-10.808333333333332
8,0.0011056764693173158
744,0.0
796,0.0
821,0.0
834,0.0
835,0.0
836,0.0
837,593.2069544441746
838,0.0
839,0.0
840,0.0
841,0.0
843,0.0
894,0.0
895,0.0
897,15.342843066485301
898,-1.0999999999999999
899,0.9338221349628001
900,15.342843066485301
901,-1.0999999999999999
902,1.0267858189522803
903,1.0607570934499202
904,0.7824901371664001
905,0.9199999999999999
906,1.0
907,0.9999999999999999
908,1.0
909,1.1784000000000001
910,3.1524203110854443
911,3.1524203110854443
912,0.0
913,0.0012397017859823573
914,3.1524203110854443
915,0.0
916,0.0012397017859823573
917,0.0
918,0.0
919,3.1524203110854443
2,1, 1, 1, 0, 6, 0.00,60.00,Thursday
7,-10.600000000000001
8,0.0011263833763957194
744,0.0
796,0.0
821,0.0
834,0.0
835,0.0
836,0.0
837,593.2069544441746
838,0.0
839,0.0
840,0.0
841,0.0
843,0.0
894,0.0
895,0.0
897,15.342843066485301
898,-1.0999999999999999
899,0.9338221349628001
900,15.342843066485301
901,-1.0999999999999999
902,1.0267858189522803
903,1.0607570934499202
904,0.7824901371664001
905,0.9199999999999999
906,1.0
907,0.9999999999999999
908,1.0
909,1.1784000000000001
910,2.6445453041874396
911,2.6445453041874396
912,0.0
913,0.0011895772949551816
914,2.6445453041874396
915,0.0
916,0.0011895772949551816
917,0.0
918,0.0
919,2.6445453041874396
2,1, 1, 1, 0, 7, 0.00,60.00,Thursday
7,-10.600000000000001
8,0.0011624542834791877
744,0.0
796,0.0
821,0.0
834,0.0
835,0.0
836,0.0
837,593.2069544441746
838,0.0
839,0.0
840,0.0
841,0.0
843,0.0
894,0.0
895,0.0
897,15.342843066485301
898,-1.0999999999999999
899,0.9338221349628001
900,15.342843066485301
901,-1.0999999999999999
902,1.0267858189522803
903,1.0607570934499202
904,0.7824901371664001
905,0.9199999999999999
906,1.0
907,0.9999999999999999
908,1.0
909,1.1784000000000001
910,2.1330676503918724
911,2.1330676503918724
912,0.0
913,0.001167444939716306
914,2.1330676503918724
915,0.0
916,0.001167444939716306
917,0.0
918,0.0
919,2.1330676503918724
2,1, 1, 1, 0, 8, 0.00,60.00,Thursday
7,-10.25
8,0.0012260498863483358
744,0.0
796,0.0
821,0.0
834,0.0
835,0.0
836,0.0
837,593.2069544441746
838,0.0
839,0.0
840,0.0
841,1.0000000000000002
843,11992.407842167899
894,0.0
895,1.0000000000000002
897,15.342843066485303
898,-1.1000000000000003
899,0.9338221349628002
900,15.342843066485303
901,-1.1000000000000003
902,1.0267858189522805
903,1.0607570934499202
904,0.7824901371664003
905,0.92
906,1.0000000000000002
907,1.0000000000000002
908,1.0000000000000002
909,1.1784000000000001
910,19.878040199237418
911,4.654055896975065
912,0.782220983308365
913,0.0011858079516848998
914,4.654055896975065
915,0.782220983308365
916,0.0011858079516848998
917,0.6652191310000001
918,0.627991956786357
919,19.878040199237418
2,1, 1, 1, 0, 9, 0.00,60.00,Thursday
7,-9.358333333333334
8,0.001266155621384587
744,0.0
796,0.0
821,0.0
834,0.0
835,0.0
836,0.0
837,593.2069544441746
838,0.0
839,0.0
840,0.0
841,1.0
843,11992.407842167899
894,0.0
895,1.0
897,15.342843066485301
898,-1.0999999999999999
899,0.9338221349628001
900,15.342843066485301
901,-1.0999999999999999
902,1.0267858189522803
903,1.0607570934499202
904,0.7824901371664001
905,0.9199999999999999
906,1.0
907,0.9999999999999999
908,1.0
909,1.1784000000000001
910,21.802674448280055
911,6.579677213196528
912,0.782220983308365
913,0.0012209338942655887
914,6.579677213196528
915,0.782220983308365
916,0.0012209338942655887
917,0.6652191309999999
918,0.6323805488865842
919,21.802674448280055
2,1, 1, 1, 0,10, 0.00,60.00,Thursday
7,-7.616666666666668
8,0.0012950606516811995
744,0.0
796,10583582.462953456
821,26968047.584779248
834,7491.124329105348
835,2939.8840174870716
836,0.6666666666666669
837,323.11291276441483
838,451358.14061888383
839,0.0
840,0.0
841,1.0000000000000002
843,11992.407842167899
894,0.0
895,1.0000000000000002
897,10.874877800125986
898,-5.2
899,0.8897294696507262
900,10.874877800125986
901,-5.2
902,1.1350515943357322
903,1.0607570934499202
904,0.7823571200106999
905,0.92
906,1.0000000000000002
907,1.0
908,1.0000000000000002
909,1.1784000000000001
910,25.164493340428464
911,8.167409746667472
912,0.782220983308365
913,0.0012532588386235317
914,9.942404351497746
915,0.782220983308365
916,0.0012532588386235314
917,0.6652191310000001
918,0.6400158586625398
919,25.164493340428464
2,1, 1, 1, 0,11, 0.00,60.00,Thursday
7,-5.708333333333333
8,0.0014658046212535083
744,0.0
796,15511057.199809158
821,41117629.45480077
834,11421.56373744466
835,4308.626999946989
836,1.0
837,215.08761148812445
838,774315.4013572482
839,0.0
840,0.0
841,1.0
843,11992.407842167899
894,0.0
895,1.0
897,10.20070991512936
898,-5.708333333333333
899,0.8838936182892492
900,10.20070991512936
901,-5.708333333333333
902,1.1430613203931614
903,1.0607570934499202
904,0.7822906114328498
905,0.9199999999999999
906,1.0
907,0.9999999999999999
908,1.0
909,1.1784000000000001
910,28.14367133109792
911,10.20070991512936
912,0.782220983308365
913,0.0013224205815207445
914,12.923525179603983
915,0.782220983308365
916,0.0013224205815207445
917,0.6652191309999999
918,0.6472071116486725
919,28.14367133109792
2,1, 1, 1, 0,12, 0.00,60.00,Thursday
7,-4.008333333333334
8,0.001730530345276722
744,0.0
796,15081514.27317611
821,41655701.58949508
834,11571.028219304188
835,4189.309520326698
836,1.0
837,298.4308135809904
838,1074350.9288915654
839,0.0
840,0.0
841,1.0
843,11992.407842167899
894,0.0
895,1.0
897,11.619332048116725
898,-4.008333333333334
899,0.9020558300524159
900,11.619332048116725
901,-4.008333333333334
902,1.0964088706272948
903,1.0607570934499202
904,0.7822906114328498
905,0.9199999999999999
906,1.0
907,0.9999999999999999
908,1.0
909,1.1784000000000001
910,29.609847666420503
911,11.619332048116725
912,0.782220983308365
913,0.0014853512781422707
914,14.394276523148362
915,0.782220983308365
916,0.001485351278142271
917,0.6652191309999999
918,0.6513596125854274
919,29.609847666420503
2,1, 1, 1, 0,13, 0.00,60.00,Thursday
7,-2.658333333333333
8,0.0019411320911259576
744,0.0
796,14786752.413312888
821,42141583.706093125
834,11705.995473914756
835,4107.431225920247
836,1.0
837,352.3987913437063
838,1268635.6488373424
839,0.0
840,0.0
841,1.0
843,11992.407842167899
894,0.0
895,1.0
897,12.81388956055505
898,-2.658333333333333
899,0.9166887943256379
900,12.81388956055505
901,-2.658333333333333
902,1.0624419844191395
903,1.0607570934499202
904,0.7822906114328498
905,0.9199999999999999
906,1.0
907,0.9999999999999999
908,1.0
909,1.1784000000000001
910,30.845666379668714
911,12.81388956055505
912,0.782220983308365
913,0.0016841034957747328
914,15.635672479880407
915,0.782220983308365
916,0.0016841034957747328
917,0.6652191309999999
918,0.6550395066657867
919,30.845666379668714
2,1, 1, 1, 0,14, 0.00,60.00,Thursday
7,-1.5583333333333336
8,0.0020896422750539176
744,0.0
796,14602115.540764097
821,42652165.48295659
834,11847.823745265718
835,4056.1432057678044
836,1.0
837,368.8707186775326
838,1327934.5872391174
839,0.0
840,0.0
841,1.0
843,11992.407842167899
894,0.0
895,1.0
897,13.744372444743348
898,-1.5583333333333336
899,0.9287599711668046
900,13.744372444743348
901,-1.5583333333333336
902,1.0369363652588728
903,1.0607570934499202
904,0.7822906114328498
905,0.9199999999999999
906,1.0
907,0.9999999999999999
908,1.0
909,1.1784000000000001
910,31.81555340244491
911,13.744372444743348
912,0.782220983308365
913,0.0018678695350881987
914,16.61071262819594
915,0.782220983308365
916,0.001867869535088199
917,0.6652191309999999
918,0.6577206750768539
919,31.81555340244491
2,1, 1, 1, 0,15, 0.00,60.00,Thursday
7,-1.0999999999999999
8,0.0022032572377112644
744,0.0
796,14482123.024858093
821,42708654.42931239
834,11863.515119253441
835,4022.8119513494707
836,1.0
837,416.19912000933624
838,1498316.8320336107
839,0.0
840,0.0
841,1.0
843,11992.407842167899
894,0.0
895,1.0
897,14.454214462741108
898,-1.0999999999999999
899,0.9338221349628001
900,14.454214462741108
901,-1.0999999999999999
902,1.0267858189522803
903,1.0607570934499202
904,0.7822906114328498
905,0.9199999999999999
906,1.0
907,0.9999999999999999
908,1.0
909,1.1784000000000001
910,32.531897310594886
911,14.454214462741108
912,0.782220983308365
913,0.0020204777652857264
914,17.3313332889557
915,0.782220983308365
916,0.0020204777652857273
917,0.6652191309999999
918,0.6595176641201174
919,32.531897310594886
2,1, 1, 1, 0,16, 0.00,60.00,Thursday
7,-1.0999999999999999
8,0.0023501111226499134
744,0.0
796,14341384.73371966
821,42246696.788302876
834,11735.193552306357
835,3983.7179815887944
836,1.0
837,534.6502711469669
838,1924740.9761290813
839,0.0
840,0.0
841,1.0
843,11992.407842167899
894,0.0
895,1.0
897,14.908782195810515
898,-1.0999999999999999
899,0.9338221349628001
900,14.908782195810515
901,-1.0999999999999999
902,1.0267858189522803
903,1.0607570934499202
904,0.7822906114328498
905,0.9199999999999999
906,1.0
907,0.9999999999999999
908,1.0
909,1.1784000000000001
910,32.95581358990979
911,14.908782195810515
912,0.782220983308365
913,0.0021608853029303245
914,17.75918223343233
915,0.782220983308365
916,0.002160885302930324
917,0.6652191309999999
918,0.6606376766480383
919,32.95581358990979
2,1, 1, 1, 0,17, 0.00,60.00,Thursday
7,-1.0999999999999999
8,0.002423558657988044
744,0.0
796,14271810.335642194
821,42018326.63721935
834,11671.757399227596
835,3964.3917599006095
836,1.0
837,593.2069544441746
838,2135545.035999028
839,0.0
840,0.0
841,1.0
843,11992.407842167899
894,0.0
895,1.0
897,15.21090522724657
898,-1.0999999999999999
899,0.9338221349628001
900,15.21090522724657
901,-1.0999999999999999
902,1.0267858189522803
903,1.0607570934499202
904,0.7822906114328498
905,0.9199999999999999
906,1.0
907,0.9999999999999999
908,1.0
909,1.1784000000000001
910,33.241823488364524
911,15.21090522724657
912,0.782220983308365
913,0.0022892802765838573
914,18.048786619888375
915,0.782220983308365
916,0.0022892802765838573
917,0.6652191309999999
918,0.6614313814310332
919,33.241823488364524
2,1, 1, 1, 0,18, 0.00,60.00,Thursday
7,-1.45
8,0.002413534984274587
744,0.0
796,0.0
821,0.0
834,0.0
835,0.0
836,0.0
837,593.2069544441746
838,0.0
839,0.0
840,0.0
841,0.0
843,0.0
894,0.0
895,0.0
897,15.303281094032945
898,-1.1000000000000005
899,0.9338221349628005
900,15.303281094032945
901,-1.1000000000000005
902,1.0267858189522805
903,1.0607570934499202
904,0.7822906114328502
905,0.92
906,1.0000000000000002
907,1.0000000000000002
908,1.0000000000000002
909,1.1784000000000003
910,11.894496163168341
911,11.894496163168341
912,0.0
913,0.0023373990403076253
914,11.894496163168341
915,0.0
916,0.0023373990403076253
917,0.0
918,0.0
919,11.894496163168341
2,1, 1, 1, 0,19, 0.00,60.00,Thursday
7,-1.9916666666666671
8,0.002404725447798106
744,0.0
796,0.0
821,0.0
834,0.0
835,0.0
836,0.0
837,593.2069544441746
838,0.0
839,0.0
840,0.0
841,0.0
843,0.0
894,0.0
895,0.0
897,15.30328109403294
898,-1.0999999999999999
899,0.9338221349628001
900,15.30328109403294
901,-1.0999999999999999
902,1.0267858189522803
903,1.0607570934499202
904,0.7822906114328498
905,0.9199999999999999
906,1.0
907,0.9999999999999999
908,1.0
909,1.1784000000000001
910,9.341986178740866
911,9.341986178740866
912,0.0
913,0.002354546091488586
914,9.341986178740866
915,0.0
916,0.002354546091488586
917,0.0
918,0.0
919,9.341986178740866
2,1, 1, 1, 0,20, 0.00,60.00,Thursday
7,-1.5583333333333336
8,0.0024768429298474815
744,0.0
796,0.0
821,0.0
834,0.0
835,0.0
836,0.0
837,593.2069544441746
838,0.0
839,0.0
840,0.0
841,0.0
843,0.0
894,0.0
895,0.0
897,15.30328109403294
898,-1.0999999999999999
899,0.9338221349628001
900,15.30328109403294
901,-1.0999999999999999
902,1.0267858189522803
903,1.0607570934499202
904,0.7822906114328498
905,0.9199999999999999
906,1.0
907,0.9999999999999999
908,1.0
909,1.1784000000000001
910,8.63009729363535
911,8.63009729363535
912,0.0
913,0.002380211476335306
914,8.63009729363535
915,0.0
916,0.002380211476335306
917,0.0
918,0.0
919,8.63009729363535
2,1, 1, 1, 0,21, 0.00,60.00,Thursday
7,-1.45
8,0.002577386664058184
744,0.0
796,0.0
821,0.0
834,0.0
835,0.0
836,0.0
837,593.2069544441746
838,0.0
839,0.0
840,0.0
841,0.0
843,0.0
894,0.0
895,0.0
897,15.30328109403294
898,-1.0999999999999999
899,0.9338221349628001
900,15.30328109403294
901,-1.0999999999999999
902,1.0267858189522803
903,1.0607570934499202
904,0.7822906114328498
905,0.9199999999999999
906,1.0
907,0.9999999999999999
908,1.0
909,1.1784000000000001
910,8.222146172058647
911,8.222146172058647
912,0.0
913,0.0024359386105727147
914,8.222146172058647
915,0.0
916,0.0024359386105727147
917,0.0
918,0.0
919,8.222146172058647
2,1, 1, 1, 0,22, 0.00,60.00,Thursday
7,-1.3500000000000003
8,0.002626467592385627
744,0.0
796,0.0
821,0.0
834,0.0
835,0.0
836,0.0
837,593.2069544441746
838,0.0
839,0.0
840,0.0
841,0.0
843,0.0
894,0.0
895,0.0
897,15.30328109403294
898,-1.0999999999999999
899,0.9338221349628001
900,15.30328109403294
901,-1.0999999999999999
902,1.0267858189522803
903,1.0607570934499202
904,0.7822906114328498
905,0.9199999999999999
906,1.0
907,0.9999999999999999
908,1.0
909,1.1784000000000001
910,7.798990145508341
911,7.798990145508341
912,0.0
913,0.0025021177095588586
914,7.798990145508341
915,0.0
916,0.0025021177095588586
917,0.0
918,0.0
919,7.798990145508341
2,1, 1, 1, 0,23, 0.00,60.00,Thursday
7,-1.45
8,0.0026233161997602644
744,0.0
796,0.0
821,0.0
834,0.0
835,0.0
836,0.0
837,593.2069544441746
838,0.0
839,0.0
840,0.0
841,0.0
843,0.0
894,0.0
895,0.0
897,15.30328109403294
898,-1.0999999999999999
899,0.9338221349628001
900,15.30328109403294
901,-1.0999999999999999
902,1.0267858189522803
903,1.0607570934499202
904,0.7822906114328498
905,0.9199999999999999
906,1.0
907,0.9999999999999999
908,1.0
909,1.1784000000000001
910,7.3809910725445285
911,7.3809910725445285
912,0.0
913,0.002553444890181554
914,7.3809910725445285
915,0.0
916,0.002553444890181554
917,0.0
918,0.0
919,7.3809910725445285
2,1, 1, 1, 0,24, 0.00,60.00,Thursday
7,-1.7
8,0.0024946296330889046
744,0.0
796,0.0
821,0.0
834,0.0
835,0.0
836,0.0
837,593.2069544441746
838,0.0
839,0.0
840,0.0
841,0.0
843,0.0
894,0.0
895,0.0
897,15.30328109403294
898,-1.0999999999999999
899,0.9338221349628001
900,15.30328109403294
901,-1.0999999999999999
902,1.0267858189522803
903,1.0607570934499202
904,0.7822906114328498
905,0.9199999999999999
906,1.0
907,0.9999999999999999
908,1.0
909,1.1784000000000001
910,6.920937185963168
911,6.920937185963168
912,0.0
913,0.002567465278857787
914,6.920937185963168
915,0.0
916,0.002567465278857787
917,0.0
918,0.0
919,6.920937185963168
2,2, 1, 2, 0, 1, 0.00,60.00,Friday
7,-2.983333333333333
8,0.0023899145196712474
744,0.0
796,0.0
821,0.0
834,0.0
835,0.0
836,0.0
837,593.2069544441746
838,0.0
839,0.0
840,0.0
841,0.0
843,0.0
894,0.0
895,0.0
897,15.30328109403294
898,-1.0999999999999999
899,0.9338221349628001
900,15.30328109403294
901,-1.0999999999999999
902,1.0267858189522803
903,1.0607570934499202
904,0.7822906114328498
905,0.9199999999999999
906,1.0
907,0.9999999999999999
908,1.0
909,1.1784000000000001
910,6.434887899209226
911,6.434887899209226
912,0.0
913,0.002517762779770058
914,6.434887899209226
915,0.0
916,0.002517762779770058
917,0.0
918,0.0
919,6.434887899209226
2,2, 1, 2, 0, 2, 0.00,60.00,Friday
7,-3.2583333333333333
8,0.00237626049458396
744,0.0
796,0.0
821,0.0
834,0.0
835,0.0
836,0.0
837,593.2069544441746
838,0.0
839,0.0
840,0.0
841,0.0
843,0.0
894,0.0
895,0.0
897,15.30328109403294
898,-1.0999999999999999
899,0.9338221349628001
900,15.30328109403294
901,-1.0999999999999999
902,1.0267858189522803
903,1.0607570934499202
904,0.7822906114328498
905,0.9199999999999999
906,1.0
907,0.9999999999999999
908,1.0
909,1.1784000000000001
910,5.8993432572555315
911,5.8993432572555315
912,0.0
913,0.00246189792124012
914,5.8993432572555315
915,0.0
916,0.00246189792124012
917,0.0
918,0.0
919,5.8993432572555315
2,2, 1, 2, 0, 3, 0.00,60.00,Friday
7,-3.0916666666666663
8,0.0023251208413501263
744,0.0
796,0.0
821,0.0
834,0.0
835,0.0
836,0.0
837,593.2069544441746
838,0.0
839,0.0
840,0.0
841,0.0
843,0.0
894,0.0
895,0.0
897,15.30328109403294
898,-1.0999999999999999
899,0.9338221349628001
900,15.30328109403294
901,-1.0999999999999999
902,1.0267858189522803
903,1.0607570934499202
904,0.7822906114328498
905,0.9199999999999999
906,1.0
907,0.9999999999999999
908,1.0
909,1.1784000000000001
910,5.5378557978236005
911,5.5378557978236005
912,0.0
913,0.0024229297480282404
914,5.5378557978236005
915,0.0
916,0.0024229297480282404
917,0.0
918,0.0
919,5.5378557978236005
2,2, 1, 2, 0, 4, 0.00,60.00,Friday
7,-3.008333333333333
8,0.002342559233175914
744,0.0
796,0.0
821,0.0
834,0.0
835,0.0
836,0.0
837,593.2069544441746
838,0.0
839,0.0
840,0.0
841,0.0
843,0.0
894,0.0
895,0.0
897,15.30328109403294
898,-1.0999999999999999
899,0.9338221349628001
900,15.30328109403294
901,-1.0999999999999999
902,1.0267858189522803
903,1.0607570934499202
904,0.7822906114328498
905,0.9199999999999999
906,1.0
907,0.9999999999999999
908,1.0
909,1.1784000000000001
910,5.141140426494977
911,5.141140426494977
912,0.0
913,0.002380285960441115
914,5.141140426494977
915,0.0
916,0.002380285960441115
917,0.0
918,0.0
919,5.141140426494977
2,2, 1, 2, 0, 5, 0.00,60.00,Friday
7,-1.8083333333333333
8,0.002474148392251909
744,0.0
796,0.0
821,0.0
834,0.0
835,0.0
836,0.0
837,593.2069544441746
838,0.0
839,0.0
840,0.0
841,0.0
843,0.0
894,0.0
895,0.0
897,15.30328109403294
898,-1.0999999999999999
899,0.9338221349628001
900,15.30328109403294
901,-1.0999999999999999
902,1.0267858189522803
903,1.0607570934499202
904,0.7822906114328498
905,0.9199999999999999
906,1.0
907,0.9999999999999999
908,1.0
909,1.1784000000000001
910,4.878157283402147
911,4.878157283402147
912,0.0
913,0.0023832653401647777
914,4.878157283402147
915,0.0
916,0.0023832653401647777
917,0.0
918,0.0
919,4.878157283402147
2,2, 1, 2, 0, 6, 0.00,60.00,Friday
7,-1.0999999999999999
8,0.0025370630535899966
744,0.0
796,0.0
821,0.0
834,0.0
835,0.0
836,0.0
837,593.2069544441746
838,0.0
839,0.0
840,0.0
841,0.0
843,0.0
894,0.0
895,0.0
897,15.30328109403294
898,-1.0999999999999999
899,0.9338221349628001
900,15.30328109403294
901,-1.0999999999999999
902,1.0267858189522803
903,1.0607570934499202
904,0.7822906114328498
905,0.9199999999999999
906,1.0
907,0.9999999999999999
908,1.0
909,1.1784000000000001
910,4.671345746357596
911,4.671345746357596
912,0.0
913,0.0024336688412567747
914,4.671345746357596
915,0.0
916,0.0024336688412567747
917,0.0
918,0.0
919,4.671345746357596
2,2, 1, 2, 0, 7, 0.00,60.00,Friday
7,-0.8083333333333332
8,0.0025342950569257248
744,0.0
796,0.0
821,0.0
834,0.0
835,0.0
836,0.0
837,593.2069544441746
838,0.0
839,0.0
840,0.0
841,0.0
843,0.0
894,0.0
895,0.0
897,15.30328109403294
898,-1.0999999999999999
899,0.9338221349628001
900,15.30328109403294
901,-1.0999999999999999
902,1.0267858189522803
903,1.0607570934499202
904,0.7822906114328498
905,0.9199999999999999
906,1.0
907,0.9999999999999999
908,1.0
909,1.1784000000000001
910,4.435565637838674
911,4.435565637838674
912,0.0
913,0.0024748267985255736
914,4.435565637838674
915,0.0
916,0.0024748267985255736
917,0.0
918,0.0
919,4.435565637838674
2,2, 1, 2, 0, 8, 0.00,60.00,Friday
7,-0.6
8,0.0025331242663815617
744,0.0
796,14169230.977595445
821,42154805.89941528
834,11709.668305393136
835,3935.8974937765124
836,1.0000000000000002
837,626.1470336391111
838,2254129.3211008
839,0.0
840,0.0
841,1.0000000000000002
843,11992.407842167899
894,0.0
895,1.0000000000000002
897,9.5657979586282
898,-0.6000000000000002
899,0.9393754147628002
900,9.5657979586282
901,-0.6000000000000002
902,1.01616600621428
903,1.0607570934499202
904,0.7822906114328498
905,0.92
906,1.0000000000000002
907,1.0
908,1.0000000000000002
909,1.1784000000000001
910,27.551313448916677
911,9.5657979586282
912,0.782220983308365
913,0.002504863625017514
914,12.364308082843136
915,0.782220983308365
916,0.0025048636250175143
917,0.6652191310000001
918,0.6504384626843174
919,27.551313448916677
2,2, 1, 2, 0, 9, 0.00,60.00,Friday
7,-0.25
8,0.0026075298651087376
744,0.0
796,14100664.461113222
821,42252399.058176726
834,11736.777516160202
835,3916.8512391981167
836,1.0
837,648.8991377425414
838,2336036.895873149
839,0.0
840,0.0
841,1.0
843,11992.407842167899
894,0.0
895,1.0
897,11.777638766388215
898,-0.25
899,0.9432799433674667
900,11.777638766388215
901,-0.25
902,1.0089848995510133
903,1.0607570934499202
904,0.7822906114328498
905,0.9199999999999999
906,1.0
907,0.9999999999999999
908,1.0
909,1.1784000000000001
910,29.79013986081841
911,11.777638766388215
912,0.782220983308365
913,0.002538343111218712
914,14.604070721082728
915,0.782220983308365
916,0.002538343111218712
917,0.6652191309999999
918,0.6554645229135388
919,29.79013986081841
2,2, 1, 2, 0,10, 0.00,60.00,Friday
7,0.35000000000000003
8,0.002683225943405678
744,0.0
796,14279219.7891892
821,44072099.45515625
834,12242.249848654516
835,3966.4499414414445
836,1.0
837,540.4629284814406
838,1945666.5425331863
839,0.0
840,0.0
841,1.0
843,11992.407842167899
894,0.0
895,1.0
897,12.515964439856212
898,0.35000000000000003
899,0.9500008526914666
900,12.515964439856212
901,0.35000000000000003
902,0.9970767872254135
903,1.0607570934499202
904,0.7822906114328498
905,0.9199999999999999
906,1.0
907,0.9999999999999999
908,1.0
909,1.1784000000000001
910,30.65487430179446
911,12.515964439856212
912,0.782220983308365
913,0.0026021875086944765
914,15.470590222855352
915,0.782220983308365
916,0.002602187508694476
917,0.6652191309999999
918,0.6572289181320334
919,30.65487430179446
2,2, 1, 2, 0,11, 0.00,60.00,Friday
7,1.2416666666666667
8,0.002704421676241346
744,0.0
796,15411435.147584515
821,52088634.33990909
834,14469.06509441919
835,4280.954207662366
836,1.0
837,0.0
838,0.0
839,0.0
840,0.0
841,1.0
843,11992.407842167899
894,0.0
895,1.0
897,13.571710060442461
898,1.2416666666666667
899,0.960062669162138
900,13.571710060442461
901,1.2416666666666667
902,0.9804624520727393
903,1.0607570934499202
904,0.7822906114328498
905,0.9199999999999999
906,1.0
907,0.9999999999999999
908,1.0
909,1.1784000000000001
910,32.26147147692351
911,13.571710060442461
912,0.782220983308365
913,0.0026519849388004844
914,17.078579430693726
915,0.782220983308365
916,0.0026519849388004844
917,0.6652191309999999
918,0.6613331548243057
919,32.26147147692351
2,2, 1, 2, 0,12, 0.00,60.00,Friday
7,1.7
8,0.002758683515288492
744,0.0
796,15366165.864481902
821,52370630.52186979
834,14547.397367186057
835,4268.379406800529
836,1.0
837,0.0
838,0.0
839,0.0
840,0.0
841,1.0
843,11992.407842167899
894,0.0
895,1.0
897,14.445625520258615
898,1.7
899,0.9652602330948
900,14.445625520258615
901,1.7
902,0.97229789489948
903,1.0607570934499202
904,0.7822906114328498
905,0.9199999999999999
906,1.0
907,0.9999999999999999
908,1.0
909,1.1784000000000001
910,33.167474599736416
911,14.445625520258615
912,0.782220983308365
913,0.002693813928842537
914,17.98575162662042
915,0.782220983308365
916,0.002693813928842536
917,0.6652191309999999
918,0.6641158696390324
919,33.167474599736416
2,2, 1, 2, 0,13, 0.00,60.00,Friday
7,1.7
8,0.0028766722108134885
744,0.0
796,15366165.864481902
821,52370630.52186979
834,14547.397367186057
835,4268.379406800529
836,1.0
837,0.0
838,0.0
839,0.0
840,0.0
841,1.0
843,11992.407842167899
894,0.0
895,1.0
897,15.18148159388744
898,1.7
899,0.9652602330948
900,15.18148159388744
901,1.7
902,0.97229789489948
903,1.0607570934499202
904,0.7822906114328498
905,0.9199999999999999
906,1.0
907,0.9999999999999999
908,1.0
909,1.1784000000000001
910,33.91604589296386
911,15.18148159388744
912,0.782220983308365
913,0.0027646177325297634
914,18.73630138329726
915,0.782220983308365
916,0.0027646177325297643
917,0.6652191309999999
918,0.6669721761940245
919,33.91604589296386
2,2, 1, 2, 0,14, 0.00,60.00,Friday
7,0.7083333333333335
8,0.003322476809655145
744,0.0
796,14727715.223906215
821,47951705.62951437
834,13319.918230420655
835,4091.0320066406152
836,1.0
837,428.2520473638894
838,1541707.3705100017
839,0.0
840,0.0
841,1.0
843,11992.407842167899
894,0.0
895,1.0
897,15.673532272905524
898,0.7083333333333335
899,0.9540436579284157
900,15.673532272905524