Program Version,EnergyPlus, Version 23.1.0-87ed9199d4, YMD=2023.09.14 18:28
1,5,Environment Title[],Latitude[deg],Longitude[deg],Time Zone[],Elevation[m]
2,8,Day of Simulation[],Month[],Day of Month[],DST Indicator[1=yes 0=no],Hour[],StartMinute[],EndMinute[],DayType
3,5,Cumulative Day of Simulation[],Month[],Day of Month[],DST Indicator[1=yes 0=no],DayType  ! When Daily Report Variables Requested
4,2,Cumulative Days of Simulation[],Month[]  ! When Monthly Report Variables Requested
5,1,Cumulative Days of Simulation[] ! When Run Period Report Variables Requested
6,1,Calendar Year of Simulation[] ! When Annual Report Variables Requested
7,1,Environment,Site Outdoor Air Drybulb Temperature [C] !Hourly
8,1,Environment,Site Outdoor Air Humidity Ratio [kgWater/kgDryAir] !Hourly
744,1,DX COOLING COIL,Coil System Part Load Ratio [] !Hourly
796,1,HEAT PUMP DX HEATING COIL 1,Heating Coil Electricity Energy [J] !Hourly
821,1,HEAT PUMP DX HEATING COIL 1,Heating Coil Heating Energy [J] !Hourly
834,1,HEAT PUMP DX HEATING COIL 1,Heating Coil Heating Rate [W] !Hourly
835,1,HEAT PUMP DX HEATING COIL 1,Heating Coil Part Load Ratio [] !Hourly
836,1,HEAT PUMP DX HEATING COIL 1,Heating Coil Electricity Rate [W] !Hourly
837,1,HEAT PUMP DX HEATING COIL 1,Heating Coil Runtime Fraction [] !Hourly
838,1,HEAT PUMP DX HEATING COIL 1,Heating Coil Source Side Heat Transfer Rate [W] !Hourly
839,1,HEAT PUMP DX HEATING COIL 1,Heating Coil Upper Speed Level [] !Hourly
840,1,HEAT PUMP DX HEATING COIL 1,Heating Coil Neighboring Speed Levels Ratio [] !Hourly
841,1,HEAT PUMP DX HEATING COIL 1,Heating Coil Defrost Electricity Rate [W] !Hourly
842,1,HEAT PUMP DX HEATING COIL 1,Heating Coil Defrost Electricity Energy [J] !Hourly
843,1,HEAT PUMP DX HEATING COIL 1,Heating Coil Crankcase Heater Electricity Rate [W] !Hourly
844,1,HEAT PUMP DX HEATING COIL 1,Heating Coil Crankcase Heater Electricity Energy [J] !Hourly
845,1,HEATPUMP DX COIL 1,Coil System Part Load Ratio [] !Hourly
847,1,HEAT PUMP DX SUPP HEATING COIL 1,Heating Coil Heating Rate [W] !Hourly
898,1,HEAT PUMP DX SUPP HEATING COIL 1,Heating Coil Electricity Rate [W] !Hourly
899,1,HEAT PUMP DX SUPP HEATING COIL 1,Heating Coil Runtime Fraction [] !Hourly
901,1,HPACHEATCAPFT,Performance Curve Input Variable 1 Value [] !Hourly
902,1,HPACHEATCAPFT,Performance Curve Input Variable 2 Value [] !Hourly
903,1,HPACHEATCAPFT,Performance Curve Output Value [] !Hourly
904,1,HPACHEATEIRFT,Performance Curve Input Variable 1 Value [] !Hourly
905,1,HPACHEATEIRFT,Performance Curve Input Variable 2 Value [] !Hourly
906,1,HPACHEATEIRFT,Performance Curve Output Value [] !Hourly
907,1,HPACCOOLCAPFT,Performance Curve Output Value [] !Hourly
908,1,HPACCOOLEIRFT,Performance Curve Output Value [] !Hourly
909,1,HPDFEIRFT,Performance Curve Output Value [] !Hourly
910,1,HPACHEATCAPFFF,Performance Curve Output Value [] !Hourly
911,1,HPACCOOLCAPFFF,Performance Curve Output Value [] !Hourly
912,1,HPACCOOLEIRFFF,Performance Curve Output Value [] !Hourly
913,1,HPACCOOLPLFFPLR,Performance Curve Output Value [] !Hourly
914,1,HPACHEATEIRFFF,Performance Curve Output Value [] !Hourly
915,1,ZONE 2 INLET NODE,System Node Temperature [C] !Hourly
916,1,HEATING COIL AIR INLET NODE,System Node Temperature [C] !Hourly
917,1,HEATING COIL AIR INLET NODE,System Node Mass Flow Rate [kg/s] !Hourly
918,1,HEATING COIL AIR INLET NODE,System Node Humidity Ratio [kgWater/kgDryAir] !Hourly
919,1,SUPPHEATING COIL AIR INLET NODE,System Node Temperature [C] !Hourly
920,1,SUPPHEATING COIL AIR INLET NODE,System Node Mass Flow Rate [kg/s] !Hourly
921,1,SUPPHEATING COIL AIR INLET NODE,System Node Humidity Ratio [kgWater/kgDryAir] !Hourly
922,1,SUPPHEATING COIL AIR INLET NODE,System Node Standard Density Volume Flow Rate [m3/s] !Hourly
923,1,SUPPHEATING COIL AIR INLET NODE,System Node Current Density Volume Flow Rate [m3/s] !Hourly
924,1,AIR LOOP OUTLET NODE,System Node Temperature [C] !Hourly
End of Data Dictionary
1,JAN,  41.98, -87.92,  -6.00, 201.00
2,1, 1, 1, 0, 1, 0.00,60.00,Thursday
7,-7.825
8,0.0014786732569680788
744,0.0
796,0.0
821,0.0
834,0.0
835,0.0
836,0.0
837,0.0
838,0.0
839,1.0
840,0.0
841,530.8268470367408
842,0.0
843,0.0
844,0.0
845,0.0
847,0.0
898,0.0
899,0.0
901,17.864462293558727
902,-1.0999999999999999
903,0.9341899545664801
904,17.864462293558727
905,-1.0999999999999999
906,1.0291070785547614
907,1.0607570934499202
908,0.7824901371664001
909,0.7644983720564501
910,1.0026652350240395
911,1.0
912,0.9999999999999999
913,1.0
914,0.9944971704557056
915,7.904248341539385
916,7.904248341539385
917,0.0
918,0.002416121598152758
919,7.904248341539385
920,0.0
921,0.002416121598152758
922,0.0
923,0.0
924,7.904248341539385
2,1, 1, 1, 0, 2, 0.00,60.00,Thursday
7,-11.908333333333331
8,0.0010010221354295199
744,0.0
796,0.0
821,0.0
834,0.0
835,0.0
836,0.0
837,0.0
838,0.0
839,1.0
840,0.0
841,530.8268470367408
842,0.0
843,0.0
844,0.0
845,0.0
847,0.0
898,0.0
899,0.0
901,17.864462293558727
902,-1.0999999999999999
903,0.9341899545664801
904,17.864462293558727
905,-1.0999999999999999
906,1.0291070785547614
907,1.0607570934499202
908,0.7824901371664001
909,0.7644983720564501
910,1.0026652350240395
911,1.0
912,0.9999999999999999
913,1.0
914,0.9944971704557056
915,6.58449231038269
916,6.58449231038269
917,0.0
918,0.0019112228493343012
919,6.58449231038269
920,0.0
921,0.0019112228493343012
922,0.0
923,0.0
924,6.58449231038269
2,1, 1, 1, 0, 3, 0.00,60.00,Thursday
7,-11.35
8,0.001052853459055591
744,0.0
796,0.0
821,0.0
834,0.0
835,0.0
836,0.0
837,0.0
838,0.0
839,1.0
840,0.0
841,530.8268470367408
842,0.0
843,0.0
844,0.0
845,0.0
847,0.0
898,0.0
899,0.0
901,17.864462293558727
902,-1.0999999999999999
903,0.9341899545664801
904,17.864462293558727
905,-1.0999999999999999
906,1.0291070785547614
907,1.0607570934499202
908,0.7824901371664001
909,0.7644983720564501
910,1.0026652350240395
911,1.0
912,0.9999999999999999
913,1.0
914,0.9944971704557056
915,5.947280936748489
916,5.947280936748489
917,0.0
918,0.0015410603360163407
919,5.947280936748489
920,0.0
921,0.0015410603360163407
922,0.0
923,0.0
924,5.947280936748489
2,1, 1, 1, 0, 4, 0.00,60.00,Thursday
7,-11.1
8,0.0010770798165451528
744,0.0
796,0.0
821,0.0
834,0.0
835,0.0
836,0.0
837,0.0
838,0.0
839,1.0
840,0.0
841,530.8268470367408
842,0.0
843,0.0
844,0.0
845,0.0
847,0.0
898,0.0
899,0.0
901,17.864462293558727
902,-1.0999999999999999
903,0.9341899545664801
904,17.864462293558727
905,-1.0999999999999999
906,1.0291070785547614
907,1.0607570934499202
908,0.7824901371664001
909,0.7644983720564501
910,1.0026652350240395
911,1.0
912,0.9999999999999999
913,1.0
914,0.9944971704557056
915,5.314262190963979
916,5.314262190963979
917,0.0
918,0.0013450719438391082
919,5.314262190963979
920,0.0
921,0.0013450719438391082
922,0.0
923,0.0
924,5.314262190963979
2,1, 1, 1, 0, 5, 0.00,60.00,Thursday
7,-10.808333333333332
8,0.0011056764693173158
744,0.0
796,0.0
821,0.0
834,0.0
835,0.0
836,0.0
837,0.0
838,0.0
839,1.0
840,0.0
841,530.8268470367408
842,0.0
843,0.0
844,0.0
845,0.0
847,0.0
898,0.0
899,0.0
901,17.864462293558727
902,-1.0999999999999999
903,0.9341899545664801
904,17.864462293558727
905,-1.0999999999999999
906,1.0291070785547614
907,1.0607570934499202
908,0.7824901371664001
909,0.7644983720564501
910,1.0026652350240395
911,1.0
912,0.9999999999999999
913,1.0
914,0.9944971704557056
915,4.681342166328949
916,4.681342166328949
917,0.0
918,0.001237637791302536
919,4.681342166328949
920,0.0
921,0.001237637791302536
922,0.0
923,0.0
924,4.681342166328949
2,1, 1, 1, 0, 6, 0.00,60.00,Thursday
7,-10.600000000000001
8,0.0011263833763957194
744,0.0
796,0.0
821,0.0
834,0.0
835,0.0
836,0.0
837,0.0
838,0.0
839,1.0
840,0.0
841,530.8268470367408
842,0.0
843,0.0
844,0.0
845,0.0
847,0.0
898,0.0
899,0.0
901,17.864462293558727
902,-1.0999999999999999
903,0.9341899545664801
904,17.864462293558727
905,-1.0999999999999999
906,1.0291070785547614
907,1.0607570934499202
908,0.7824901371664001
909,0.7644983720564501
910,1.0026652350240395
911,1.0
912,0.9999999999999999
913,1.0
914,0.9944971704557056
915,4.1182981291786875
916,4.1182981291786875
917,0.0
918,0.0011881565933417528
919,4.1182981291786875
920,0.0
921,0.0011881565933417528
922,0.0
923,0.0
924,4.1182981291786875
2,1, 1, 1, 0, 7, 0.00,60.00,Thursday
7,-10.600000000000001
8,0.0011624542834791877
744,0.0
796,0.0
821,0.0
834,0.0
835,0.0
836,0.0
837,0.0
838,0.0
839,1.0
840,0.0
841,530.8268470367408
842,0.0
843,0.0
844,0.0
845,0.0
847,0.0
898,0.0
899,0.0
901,17.864462293558727
902,-1.0999999999999999
903,0.9341899545664801
904,17.864462293558727
905,-1.0999999999999999
906,1.0291070785547614
907,1.0607570934499202
908,0.7824901371664001
909,0.7644983720564501
910,1.0026652350240395
911,1.0
912,0.9999999999999999
913,1.0
914,0.9944971704557056
915,3.5539029718660147
916,3.5539029718660147
917,0.0
918,0.0011665203555963042
919,3.5539029718660147
920,0.0
921,0.0011665203555963042
922,0.0
923,0.0
924,3.5539029718660147
2,1, 1, 1, 0, 8, 0.00,60.00,Thursday
7,-10.25
8,0.0012260498863483358
744,0.0
796,0.0
821,0.0
834,0.0
835,0.0
836,0.0
837,0.0
838,0.0
839,4.000000000000001
840,1.0000000000000002
841,530.8268470367408
842,0.0
843,0.0
844,0.0
845,1.0000000000000002
847,12103.132946305537
898,0.0
899,1.0000000000000002
901,17.864462293558734
902,-1.1000000000000003
903,0.9341899545664804
904,17.864462293558734
905,-1.1000000000000003
906,1.0291070785547616
907,1.0607570934499202
908,0.7824901371664003
909,0.7644983720564502
910,1.0026652350240395
911,1.0000000000000002
912,1.0
913,1.0000000000000002
914,0.9944971704557058
915,20.78795184094695
916,5.423237103941401
917,0.782220983308365
918,0.0011798705623368771
919,5.423237103941401
920,0.782220983308365
921,0.0011798705623368771
922,0.6652191310000001
923,0.6297247407984686
924,20.78795184094695
2,1, 1, 1, 0, 9, 0.00,60.00,Thursday
7,-9.358333333333334
8,0.001266155621384587
744,0.0
796,0.0
821,0.0
834,0.0
835,0.0
836,0.0
837,0.0
838,0.0
839,4.0
840,1.0
841,530.8268470367408
842,0.0
843,0.0
844,0.0
845,1.0
847,12103.132946305535
898,0.0
899,1.0
901,17.864462293558727
902,-1.0999999999999999
903,0.9341899545664801
904,17.864462293558727
905,-1.0999999999999999
906,1.0291070785547614
907,1.0607570934499202
908,0.7824901371664001
909,0.7644983720564501
910,1.0026652350240395
911,1.0
912,0.9999999999999999
913,1.0
914,0.9944971704557056
915,22.68233585419677
916,7.31874774768304
917,0.782220983308365
918,0.0012195957023447797
919,7.31874774768304
920,0.782220983308365
921,0.0012195957023447797
922,0.6652191309999999
923,0.6340499931997102
924,22.68233585419677
2,1, 1, 1, 0,10, 0.00,60.00,Thursday
7,-7.616666666666668
8,0.0012950606516811995
744,0.0
796,12657021.449777693
821,26919506.91890486
834,7477.640810806907
835,0.6666666666666666
836,3515.8392916049147
837,0.6666666666666666
838,3961.8015192019916
839,4.0
840,1.0
841,289.1351954568714
842,403894.48720064794
843,0.0
844,0.0
845,1.0
847,12103.132946305537
898,0.0
899,1.0
901,14.851010175056045
902,-5.2
903,0.8898520761852861
904,14.851010175056045
905,-5.2
906,1.135825347536559
907,1.0607570934499202
908,0.7824901371664001
909,0.7644983720564501
910,1.0026652350240395
911,1.0
912,0.9999999999999999
913,1.0
914,0.9944971704557056
915,36.39568902445617
916,11.541897342695014
917,0.782220983308365
918,0.001256946434359326
919,21.03316005895543
920,0.782220983308365
921,0.0012569464343593257
922,0.6652191309999999
923,0.6650940810875595
924,36.39568902445617
2,1, 1, 1, 0,11, 0.00,60.00,Thursday
7,-5.708333333333333
8,0.0014658046212535083
744,0.0
796,18549842.113851413
821,41043578.767817974
834,11400.99410217166
835,1.0
836,5152.733920514282
837,1.0
838,6248.260181657378
839,4.0
840,1.0
841,192.46955516542127
842,692890.3985955166
843,0.0
844,0.0
845,1.0
847,12103.132946305535
898,0.0
899,1.0
901,15.664448999806163
902,-5.708333333333333
903,0.8838936182892492
904,15.664448999806163
905,-5.708333333333333
906,1.1430613203931614
907,1.0607570934499202
908,0.7824901371664001
909,0.7644983720564501
910,1.0026652350240395
911,1.0
912,0.9999999999999999
913,1.0
914,0.9944971704557056
915,45.49386867877386
916,15.664448999806163
917,0.782220983308365
918,0.0013370283809444538
919,30.13360998721529
920,0.782220983308365
921,0.001337028380944453
922,0.6652191309999999
923,0.6861591041000056
924,45.49386867877386
2,1, 1, 1, 0,12, 0.00,60.00,Thursday
7,-4.008333333333334
8,0.001730530345276722
744,0.0
796,18036147.053126425
821,41582728.66106482
834,11550.757961406895
835,1.0
836,5010.0408480906735
837,1.0
838,6540.717113316222
839,4.0
840,1.0
841,267.04860191708127
842,961374.9669014926
843,0.0
844,0.0
845,1.0
847,11461.483984602024
898,0.0
899,0.9469848869255482
901,17.38959464693765
902,-4.008333333333334
903,0.9020558300524159
904,17.38959464693765
905,-4.008333333333334
906,1.0964088706272948
907,1.0607570934499202
908,0.7824901371664001
909,0.7644983720564501
910,1.0026652350240395
911,1.0
912,0.9999999999999999
913,1.0
914,0.9944971704557056
915,46.58498983962385
916,17.38959464693765
917,0.782220983308365
918,0.001519854888002173
919,32.04387579726311
920,0.782220983308365
921,0.0015198548880021728
922,0.6652191309999999
923,0.6913785915772618
924,46.58498983962385
2,1, 1, 1, 0,13, 0.00,60.00,Thursday
7,-2.658333333333333
8,0.0019411320911259576
744,0.0
796,17683638.136989154
821,42068122.945550025
834,11685.589707097228
835,1.0
836,4912.121704719209
837,1.0
838,6773.468002378019
839,4.0
840,1.0
841,315.3414468712908
842,1135229.2087366472
843,0.0
844,0.0
845,1.0
847,8635.604058791001
898,0.0
899,0.7135015451868608
901,17.679843504934066
902,-2.658333333333333
903,0.9166887943256379
904,17.679843504934066
905,-2.658333333333333
906,1.0624419844191395
907,1.0607570934499202
908,0.7824901371664001
909,0.7644983720564501
910,1.0026652350240395
911,1.0
912,0.9999999999999999
913,1.0
914,0.9944971704557056
915,43.452016045879816
916,17.679843504934066
917,0.782220983308365
918,0.0017118636236459464
919,32.49993674341739
920,0.782220983308365
921,0.0017118636236459466
922,0.6652191309999999
923,0.693322568592483
924,43.452016045879816
2,1, 1, 1, 0,14, 0.00,60.00,Thursday
7,-1.5583333333333336
8,0.0020896422750539176
744,0.0
796,17464177.030654382
821,42577246.64519204
834,11827.012956997789
835,1.0
836,4851.160286292884
837,1.0
838,6975.852670704906
839,4.0
840,1.0
841,330.0812289755416
842,1188292.4243119496
843,0.0
844,0.0
845,1.0
847,6652.004675201129
898,0.0
899,0.5496101467869643
901,17.73340170205397
902,-1.5583333333333336
903,0.92877069687191
904,17.73340170205397
905,-1.5583333333333336
906,1.0370041630411726
907,1.0607570934499202
908,0.7824901371664001
909,0.7644983720564501
910,1.0026652350240395
911,1.0
912,0.9999999999999999
913,1.0
914,0.9944971704557056
915,41.16151150402985
916,17.73340170205397
917,0.782220983308365
918,0.001890305339156824
919,32.72791748255474
920,0.782220983308365
921,0.0018903053391568236
922,0.6652191309999999
923,0.6943296576349889
924,41.16151150402985
2,1, 1, 1, 0,15, 0.00,60.00,Thursday
7,-1.0999999999999999
8,0.0022032572377112644
744,0.0
796,17338612.970214207
821,42641035.374189906
834,11844.732048386088
835,1.0
836,4816.281380615056
837,1.0
838,7028.45066777103
839,4.0
840,1.0
841,372.4326981652291
842,1340757.7133948246
843,0.0
844,0.0
845,1.0
847,5468.077810129405
898,0.0
899,0.4517902789623185
901,17.81546333787333
902,-1.0999999999999999
903,0.9339763532112201
904,17.81546333787333
905,-1.0999999999999999
906,1.0277600923841674
907,1.0607570934499202
908,0.7824901371664001
909,0.7644983720564501
910,1.0026652350240395
911,1.0
912,0.9999999999999999
913,1.0
914,0.9944971704557056
915,39.75900442672994
916,17.81546333787333
917,0.782220983308365
918,0.0020387458430272316
919,32.82834279962515
920,0.782220983308365
921,0.0020387458430272325
922,0.6652191309999999
923,0.6947228587426988
924,39.75900442672994
2,1, 1, 1, 0,16, 0.00,60.00,Thursday
7,-1.0999999999999999
8,0.0023501111226499134
744,0.0
796,17183972.26803925
821,42188768.687835455
834,11719.102413287628
835,1.0
836,4773.325630010902
837,1.0
838,6945.776783276724
839,4.0
840,1.0
841,478.42783294104396
842,1722340.1985877585
843,0.0
844,0.0
845,1.0
847,4841.783483851627
898,0.0
899,0.4000438155419565
901,17.84114997109115
902,-1.0999999999999999
903,0.9340882418337103
904,17.84114997109115
905,-1.0999999999999999
906,1.0284660777612753
907,1.0607570934499202
908,0.7824901371664001
909,0.7644983720564501
910,1.0026652350240395
911,1.0
912,0.9999999999999999
913,1.0
914,0.9944971704557056
915,38.82632280860227
916,17.84114997109115
917,0.782220983308365
918,0.0021762367435474847
919,32.69103616028082
920,0.782220983308365
921,0.0021762367435474855
922,0.6652191309999999
923,0.694564100360735
924,38.82632280860227
2,1, 1, 1, 0,17, 0.00,60.00,Thursday
7,-1.0999999999999999
8,0.002423558657988044
744,0.0
796,17109858.261058044
821,41966046.70746749
834,11657.235196518746
835,1.0
836,4752.738405849456
837,1.0
838,6904.49679066929
839,4.0
840,1.0
841,530.8268470367408
842,1910976.649332267
843,0.0
844,0.0
845,1.0
847,4483.409165786529
898,0.0
899,0.3704337699731774
901,17.858360164396004
902,-1.0999999999999999
903,0.9341633179960923
904,17.858360164396004
905,-1.0999999999999999
906,1.028939272274578
907,1.0607570934499202
908,0.7824901371664001
909,0.7644983720564501
910,1.0026652350240395
911,1.0
912,0.9999999999999999
913,1.0
914,0.9944971704557056
915,38.306234038484554
916,17.858360164396004
917,0.782220983308365
918,0.0023030509142085392
919,32.626396196401345
920,0.782220983308365
921,0.00230305091420854
922,0.6652191309999999
923,0.6945584008731204
924,38.306234038484554
2,1, 1, 1, 0,18, 0.00,60.00,Thursday
7,-1.45
8,0.002413534984274587
744,0.0
796,0.0
821,0.0
834,0.0
835,0.0
836,0.0
837,0.0
838,0.0
839,1.0
840,0.0
841,530.8268470367408
842,0.0
843,0.0
844,0.0
845,0.0
847,0.0
898,0.0
899,0.0
901,17.86528695459421
902,-1.1000000000000003
903,0.9341935553981369
904,17.86528695459421
905,-1.1000000000000003
906,1.0291297581955126
907,1.0607570934499198
908,0.7824901371664003
909,0.7644983720564502
910,1.002665235024039
911,1.0
912,1.0
913,1.0
914,0.9944971704557058
915,14.33084494165066
916,14.33084494165066
917,0.0
918,0.0023476747918393746
919,14.33084494165066
920,0.0
921,0.0023476747918393746
922,0.0
923,0.0
924,14.33084494165066
2,1, 1, 1, 0,19, 0.00,60.00,Thursday
7,-1.9916666666666671
8,0.002404725447798106
744,0.0
796,0.0
821,0.0
834,0.0
835,0.0
836,0.0
837,0.0
838,0.0
839,1.0
840,0.0
841,530.8268470367408
842,0.0
843,0.0
844,0.0
845,0.0
847,0.0
898,0.0
899,0.0
901,17.86528695459421
902,-1.0999999999999999
903,0.9341935553981368
904,17.86528695459421
905,-1.0999999999999999
906,1.0291297581955126
907,1.0607570934499202
908,0.7824901371664001
909,0.7644983720564501
910,1.0026652350240395
911,1.0
912,0.9999999999999999
913,1.0
914,0.9944971704557056
915,11.579847062762019
916,11.579847062762019
917,0.0
918,0.0023627921071656486
919,11.579847062762019
920,0.0
921,0.0023627921071656486
922,0.0
923,0.0
924,11.579847062762019
2,1, 1, 1, 0,20, 0.00,60.00,Thursday
7,-1.5583333333333336
8,0.0024768429298474815
744,0.0
796,0.0
821,0.0
834,0.0
835,0.0
836,0.0
837,0.0
838,0.0
839,1.0
840,0.0
841,530.8268470367408
842,0.0
843,0.0
844,0.0
845,0.0
847,0.0
898,0.0
899,0.0
901,17.86528695459421
902,-1.0999999999999999
903,0.9341935553981368
904,17.86528695459421
905,-1.0999999999999999
906,1.0291297581955126
907,1.0607570934499202
908,0.7824901371664001
909,0.7644983720564501
910,1.0026652350240395
911,1.0
912,0.9999999999999999
913,1.0
914,0.9944971704557056
915,10.790875481121185
916,10.790875481121185
917,0.0
918,0.0023860070403997485
919,10.790875481121185
920,0.0
921,0.0023860070403997485
922,0.0
923,0.0
924,10.790875481121185
2,1, 1, 1, 0,21, 0.00,60.00,Thursday
7,-1.45
8,0.002577386664058184
744,0.0
796,0.0
821,0.0
834,0.0
835,0.0
836,0.0
837,0.0
838,0.0
839,1.0
840,0.0
841,530.8268470367408
842,0.0
843,0.0
844,0.0
845,0.0
847,0.0
898,0.0
899,0.0
901,17.86528695459421
902,-1.0999999999999999
903,0.9341935553981368
904,17.86528695459421
905,-1.0999999999999999
906,1.0291297581955126
907,1.0607570934499202
908,0.7824901371664001
909,0.7644983720564501
910,1.0026652350240395
911,1.0
912,0.9999999999999999
913,1.0
914,0.9944971704557056
915,10.305818349298251
916,10.305818349298251
917,0.0
918,0.002439705613762262
919,10.305818349298251
920,0.0
921,0.002439705613762262
922,0.0
923,0.0
924,10.305818349298251
2,1, 1, 1, 0,22, 0.00,60.00,Thursday
7,-1.3500000000000003
8,0.002626467592385627
744,0.0
796,0.0
821,0.0
834,0.0
835,0.0
836,0.0
837,0.0
838,0.0
839,1.0
840,0.0
841,530.8268470367408
842,0.0
843,0.0
844,0.0
845,0.0
847,0.0
898,0.0
899,0.0
901,17.86528695459421
902,-1.0999999999999999
903,0.9341935553981368
904,17.86528695459421
905,-1.0999999999999999
906,1.0291297581955126
907,1.0607570934499202
908,0.7824901371664001
909,0.7644983720564501
910,1.0026652350240395
911,1.0
912,0.9999999999999999
913,1.0
914,0.9944971704557056
915,9.803288528380422
916,9.803288528380422
917,0.0
918,0.0025047287395534323
919,9.803288528380422
920,0.0
921,0.0025047287395534323
922,0.0
923,0.0
924,9.803288528380422
2,1, 1, 1, 0,23, 0.00,60.00,Thursday
7,-1.45
8,0.0026233161997602644
744,0.0
796,0.0
821,0.0
834,0.0
835,0.0
836,0.0
837,0.0
838,0.0
839,1.0
840,0.0
841,530.8268470367408
842,0.0
843,0.0
844,0.0
845,0.0
847,0.0
898,0.0
899,0.0
901,17.86528695459421
902,-1.0999999999999999
903,0.9341935553981368
904,17.86528695459421
905,-1.0999999999999999
906,1.0291297581955126
907,1.0607570934499202
908,0.7824901371664001
909,0.7644983720564501
910,1.0026652350240395
911,1.0
912,0.9999999999999999
913,1.0
914,0.9944971704557056
915,9.304649468325142
916,9.304649468325142
917,0.0
918,0.002555272211984354
919,9.304649468325142
920,0.0
921,0.002555272211984354
922,0.0
923,0.0
924,9.304649468325142
2,1, 1, 1, 0,24, 0.00,60.00,Thursday
7,-1.7
8,0.0024946296330889046
744,0.0
796,0.0
821,0.0
834,0.0
835,0.0
836,0.0
837,0.0
838,0.0
839,1.0
840,0.0
841,530.8268470367408
842,0.0
843,0.0
844,0.0
845,0.0
847,0.0
898,0.0
899,0.0
901,17.86528695459421
902,-1.0999999999999999
903,0.9341935553981368
904,17.86528695459421
905,-1.0999999999999999
906,1.0291297581955126
907,1.0607570934499202
908,0.7824901371664001
909,0.7644983720564501
910,1.0026652350240395
911,1.0
912,0.9999999999999999
913,1.0
914,0.9944971704557056
915,8.776514859624216
916,8.776514859624216
917,0.0
918,0.0025686143726995066
919,8.776514859624216
920,0.0
921,0.0025686143726995066
922,0.0
923,0.0
924,8.776514859624216
2,2, 1, 2, 0, 1, 0.00,60.00,Friday
7,-2.983333333333333
8,0.0023899145196712474
744,0.0
796,0.0
821,0.0
834,0.0
835,0.0
836,0.0
837,0.0
838,0.0
839,1.0
840,0.0
841,530.8268470367408
842,0.0
843,0.0
844,0.0
845,0.0
847,0.0
898,0.0
899,0.0
901,17.86528695459421
902,-1.0999999999999999
903,0.9341935553981368
904,17.86528695459421
905,-1.0999999999999999
906,1.0291297581955126
907,1.0607570934499202
908,0.7824901371664001
909,0.7644983720564501
910,1.0026652350240395
911,1.0
912,0.9999999999999999
913,1.0
914,0.9944971704557056
915,8.225532993312923
916,8.225532993312923
917,0.0
918,0.002518186283034772
919,8.225532993312923
920,0.0
921,0.002518186283034772
922,0.0
923,0.0
924,8.225532993312923
2,2, 1, 2, 0, 2, 0.00,60.00,Friday
7,-3.2583333333333333
8,0.00237626049458396
744,0.0
796,0.0
821,0.0
834,0.0
835,0.0
836,0.0
837,0.0
838,0.0
839,1.0
840,0.0
841,530.8268470367408
842,0.0
843,0.0
844,0.0
845,0.0
847,0.0
898,0.0
899,0.0
901,17.86528695459421
902,-1.0999999999999999
903,0.9341935553981368
904,17.86528695459421
905,-1.0999999999999999
906,1.0291297581955126
907,1.0607570934499202
908,0.7824901371664001
909,0.7644983720564501
910,1.0026652350240395
911,1.0
912,0.9999999999999999
913,1.0
914,0.9944971704557056
915,7.6308250870491205
916,7.6308250870491205
917,0.0
918,0.0024618782231368326
919,7.6308250870491205
920,0.0
921,0.0024618782231368326
922,0.0
923,0.0
924,7.6308250870491205
2,2, 1, 2, 0, 3, 0.00,60.00,Friday
7,-3.0916666666666663
8,0.0023251208413501263
744,0.0
796,0.0
821,0.0
834,0.0
835,0.0
836,0.0
837,0.0
838,0.0
839,1.0
840,0.0
841,530.8268470367408
842,0.0
843,0.0
844,0.0
845,0.0
847,0.0
898,0.0
899,0.0
901,17.86528695459421
902,-1.0999999999999999
903,0.9341935553981368
904,17.86528695459421
905,-1.0999999999999999
906,1.0291297581955126
907,1.0607570934499202
908,0.7824901371664001
909,0.7644983720564501
910,1.0026652350240395
911,1.0
912,0.9999999999999999
913,1.0
914,0.9944971704557056
915,7.202977512987245
916,7.202977512987245
917,0.0
918,0.0024227339861029582
919,7.202977512987245
920,0.0
921,0.0024227339861029582
922,0.0
923,0.0
924,7.202977512987245
2,2, 1, 2, 0, 4, 0.00,60.00,Friday
7,-3.008333333333333
8,0.002342559233175914
744,0.0
796,0.0
821,0.0
834,0.0
835,0.0
836,0.0
837,0.0
838,0.0
839,1.0
840,0.0
841,530.8268470367408
842,0.0
843,0.0
844,0.0
845,0.0
847,0.0
898,0.0
899,0.0
901,17.86528695459421
902,-1.0999999999999999
903,0.9341935553981368
904,17.86528695459421
905,-1.0999999999999999
906,1.0291297581955126
907,1.0607570934499202
908,0.7824901371664001
909,0.7644983720564501
910,1.0026652350240395
911,1.0
912,0.9999999999999999
913,1.0
914,0.9944971704557056
915,6.750408824643199
916,6.750408824643199
917,0.0
918,0.0023799765541983576
919,6.750408824643199
920,0.0
921,0.0023799765541983576
922,0.0
923,0.0
924,6.750408824643199
2,2, 1, 2, 0, 5, 0.00,60.00,Friday
7,-1.8083333333333333
8,0.002474148392251909
744,0.0
796,0.0
821,0.0
834,0.0
835,0.0
836,0.0
837,0.0
838,0.0
839,1.0
840,0.0
841,530.8268470367408
842,0.0
843,0.0
844,0.0
845,0.0
847,0.0
898,0.0
899,0.0
901,17.86528695459421
902,-1.0999999999999999
903,0.9341935553981368
904,17.86528695459421
905,-1.0999999999999999
906,1.0291297581955126
907,1.0607570934499202
908,0.7824901371664001
909,0.7644983720564501
910,1.0026652350240395
911,1.0
912,0.9999999999999999
913,1.0
914,0.9944971704557056
915,6.432903884932416
916,6.432903884932416
917,0.0
918,0.002383104412298901
919,6.432903884932416
920,0.0
921,0.002383104412298901
922,0.0
923,0.0
924,6.432903884932416
2,2, 1, 2, 0, 6, 0.00,60.00,Friday
7,-1.0999999999999999
8,0.0025370630535899966
744,0.0
796,0.0
821,0.0
834,0.0
835,0.0
836,0.0
837,0.0
838,0.0
839,1.0
840,0.0
841,530.8268470367408
842,0.0
843,0.0
844,0.0
845,0.0
847,0.0
898,0.0
899,0.0
901,17.86528695459421
902,-1.0999999999999999
903,0.9341935553981368
904,17.86528695459421
905,-1.0999999999999999
906,1.0291297581955126
907,1.0607570934499202
908,0.7824901371664001
909,0.7644983720564501
910,1.0026652350240395
911,1.0
912,0.9999999999999999
913,1.0
914,0.9944971704557056
915,6.167912104223245
916,6.167912104223245
917,0.0
918,0.0024337916753927416
919,6.167912104223245
920,0.0
921,0.0024337916753927416
922,0.0
923,0.0
924,6.167912104223245
2,2, 1, 2, 0, 7, 0.00,60.00,Friday
7,-0.8083333333333332
8,0.0025342950569257248
744,0.0
796,0.0
821,0.0
834,0.0
835,0.0
836,0.0
837,0.0
838,0.0
839,1.0
840,0.0
841,530.8268470367408
842,0.0
843,0.0
844,0.0
845,0.0
847,0.0
898,0.0
899,0.0
901,17.86528695459421
902,-1.0999999999999999
903,0.9341935553981368
904,17.86528695459421
905,-1.0999999999999999
906,1.0291297581955126
907,1.0607570934499202
908,0.7824901371664001
909,0.7644983720564501
910,1.0026652350240395
911,1.0
912,0.9999999999999999
913,1.0
914,0.9944971704557056
915,5.881080507578168
916,5.881080507578168
917,0.0
918,0.002475067240920875
919,5.881080507578168
920,0.0
921,0.002475067240920875
922,0.0
923,0.0
924,5.881080507578168
2,2, 1, 2, 0, 8, 0.00,60.00,Friday
7,-0.6
8,0.0025331242663815617
744,0.0
796,16945137.531458635
821,42086694.788390815
834,11690.748552330779
835,1.0
836,4706.982647627398
837,1.0
838,6983.765904703381
839,4.0
840,1.0
841,560.3030327914616
842,2017090.9180492621
843,0.0
844,0.0
845,1.0
847,12103.132946305535
898,0.0
899,1.0
901,14.46562407957372
902,-0.6
903,0.9393754147628001
904,14.46562407957372
905,-0.6
906,1.01616600621428
907,1.0607570934499198
908,0.7824901371664001
909,0.7644983720564499
910,1.002665235024039
911,1.0
912,0.9999999999999999
913,1.0
914,0.9944971704557055
915,44.59751289097844
916,14.46562407957372
917,0.7822209833083648
918,0.0025107341045735843
919,29.27045260406408
920,0.7822209833083648
921,0.0025107341045735843
922,0.6652191309999999
923,0.6889597271297286
924,44.59751289097844
2,2, 1, 2, 0, 9, 0.00,60.00,Friday
7,-0.25
8,0.0026075298651087376
744,0.0
796,16881511.45096096
821,42190643.92761614
834,11719.623313226706
835,1.0
836,4689.308736378043
837,1.0
838,7030.314576848661
839,4.0
840,1.0
841,580.6625845367577
842,2090385.304332327
843,0.0
844,0.0
845,1.0
847,12103.132946305535
898,0.0
899,1.0
901,17.51474155652936
902,-0.25
903,0.9434303495353671
904,17.51474155652936
905,-0.25
906,1.0099221302744825
907,1.0607570934499202
908,0.7824901371664001
909,0.7644983720564501
910,1.0026652350240395
911,1.0
912,0.9999999999999999
913,1.0
914,0.9944971704557056
915,47.68141205619464
916,17.51474155652936
917,0.782220983308365
918,0.0025428470360055818
919,32.355258054105875
920,0.782220983308365
921,0.0025428470360055818
922,0.6652191309999999
923,0.6959042496466826
924,47.68141205619464
2,2, 1, 2, 0,10, 0.00,60.00,Friday
7,0.35000000000000003
8,0.002683225943405678
744,0.0
796,17441537.37025636
821,44133578.129222535
834,12259.327258117368
835,1.0
836,4844.8714917378775
837,1.0
838,7414.455766379491
839,4.0
840,1.0
841,483.6292462802635
842,1741065.2866089481
843,0.0
844,0.0
845,1.0
847,10884.266944743911
898,0.0
899,0.8992933476836935
901,18.464312770031835
902,0.35000000000000003
903,0.9529493101691958
904,18.464312770031835
905,0.35000000000000003
906,1.0151487207385965
907,1.0607570934499202
908,0.7824901371664001
909,0.7644983720564501
910,1.0026652350240395
911,1.0
912,0.9999999999999999
913,1.0
914,0.9944971704557056
915,47.767491029778256
916,18.464312770031835
917,0.782220983308365
918,0.0026076530613129336
919,33.986377285126366
920,0.782220983308365
921,0.002607653061312934
922,0.6652191309999999
923,0.6993980760440239
924,47.767491029778256
2,2, 1, 2, 0,11, 0.00,60.00,Friday
7,1.2416666666666667
8,0.002704421676241346
744,0.0
796,18932051.76258807
821,52185051.779955976
834,14495.84771665444
835,1.0
836,5258.903267385575
837,1.0